 &FCI NORB=  14,NELEC=14,MS2=0,
  ORBSYM=1,1,1,1,1,1,1,1,1,1,1,1,1,1,
  ISYM=1,
 &END
 0.2663263742408091    1    1    1    1
 -0.04779079942423595    2    1    1    1
 0.1144518756728399    2    1    2    1
 0.2069613302577321    2    2    1    1
 0.05124863036332115    2    2    2    1
 0.2693192806405494    2    2    2    2
 0.02704500731148137    3    1    1    1
 0.01254220892586303    3    1    2    1
 -0.01584482761928236    3    1    2    2
 0.0867833131808473    3    1    3    1
 0.01887036633117159    3    2    1    1
 -0.05064441922925709    3    2    2    1
 -0.02917511800440899    3    2    2    2
 -0.01268105259206026    3    2    3    1
 0.06435509474095541    3    2    3    2
 0.2249085213807707    3    3    1    1
 -0.02343880901761114    3    3    2    1
 0.1897884650414158    3    3    2    2
 0.01592471206721529    3    3    3    1
 0.01725959894380907    3    3    3    2
 0.2387559806011093    3    3    3    3
 0.02013068775379261    4    1    1    1
 -0.02738445535730683    4    1    2    1
 -0.006528588259178424    4    1    2    2
 0.01699066819623669    4    1    3    1
 -0.03416979989736477    4    1    3    2
 -0.0009483736939601429    4    1    3    3
 0.05974187875400844    4    1    4    1
 -0.03977004034211349    4    2    1    1
 -0.003971001592740815    4    2    2    1
 -0.008828341137108545    4    2    2    2
 -0.05226009421010712    4    2    3    1
 -0.01782405516003084    4    2    3    2
 -0.0004325963294480891    4    2    3    3
 0.01230668465324499    4    2    4    1
 0.0754726021005763    4    2    4    2
 0.0314321390651417    4    3    1    1
 -0.07703153414957083    4    3    2    1
 -0.03505784661648741    4    3    2    2
 -0.01161312209823982    4    3    3    1
 0.0460027895709775    4    3    3    2
 0.02348634218547594    4    3    3    3
 0.002951238167690686    4    3    4    1
 -0.003854719633023442    4    3    4    2
 0.08617205217202845    4    3    4    3
 0.2003318489052815    4    4    1    1
 0.02421503441035925    4    4    2    1
 0.218563811361884    4    4    2    2
 0.007980049994760546    4    4    3    1
 -0.01095005434186592    4    4    3    2
 0.2011259284000572    4    4    3    3
 -0.003860100879318027    4    4    4    1
 -0.007303192269615896    4    4    4    2
 -0.02317347904336828    4    4    4    3
 0.2305753384931022    4    4    4    4
 -0.02647349903541949    5    1    1    1
 0.01290187471131314    5    1    2    1
 -0.03235121616094046    5    1    2    2
 0.01973377481242936    5    1    3    1
 0.0007911404321372755    5    1    3    2
 0.02172223336804994    5    1    3    3
 -0.01090726229107851    5    1    4    1
 0.02050070974677266    5    1    4    2
 -0.000655639001202811    5    1    4    3
 -4.378426514688496e-05    5    1    4    4
 0.05451700440249319    5    1    5    1
 0.01409699672908248    5    2    1    1
 -0.03975401452541105    5    2    2    1
 -0.0218361265816488    5    2    2    2
 0.002609880852483133    5    2    3    1
 -0.001848334675907025    5    2    3    2
 0.002263764397237419    5    2    3    3
 0.0330772795860366    5    2    4    1
 0.01491530881064283    5    2    4    2
 -0.007041235652726431    5    2    4    3
 -0.00153240331373727    5    2    4    4
 -0.005811670167011667    5    2    5    1
 0.0498373055846205    5    2    5    2
 0.03848503085177459    5    3    1    1
 0.004666849093664631    5    3    2    1
 0.006113945931352793    5    3    2    2
 0.05680232531937343    5    3    3    1
 -0.001630814011871356    5    3    3    2
 0.02204686456516852    5    3    3    3
 0.007071610467263617    5    3    4    1
 -0.04227646531362123    5    3    4    2
 -0.0106812446168194    5    3    4    3
 -0.008781768217291508    5    3    4    4
 0.002287140108432976    5    3    5    1
 0.004071712040233921    5    3    5    2
 0.07314750117221772    5    3    5    3
 -0.02557787622303258    5    4    1    1
 0.06149582371308981    5    4    2    1
 0.03106504702309841    5    4    2    2
 0.007848840802649679    5    4    3    1
 -0.04715160583118612    5    4    3    2
 -0.01945452008917843    5    4    3    3
 0.007828156543527979    5    4    4    1
 0.008565179476019671    5    4    4    2
 -0.0620212724733276    5    4    4    3
 0.0195384037693299    5    4    4    4
 -6.595660739127732e-05    5    4    5    1
 0.00144068842329812    5    4    5    2
 0.004583884831511318    5    4    5    3
 0.0713862352776844    5    4    5    4
 0.2147740810342362    5    5    1    1
 -0.01330746137996531    5    5    2    1
 0.1959430596447559    5    5    2    2
 0.008438404337546258    5    5    3    1
 0.009419833417579499    5    5    3    2
 0.2153619047698136    5    5    3    3
 0.000375410907227291    5    5    4    1
 -0.005270544603566861    5    5    4    2
 0.01119646473054222    5    5    4    3
 0.2005631254558451    5    5    4    4
 0.004828959220700239    5    5    5    1
 0.002250298584455615    5    5    5    2
 0.01052918791352731    5    5    5    3
 -0.01278378456640065    5    5    5    4
 0.2230161611753168    5    5    5    5
 0.002622649478412827    6    1    1    1
 -0.01214323912546397    6    1    2    1
 -0.00368862820971684    6    1    2    2
 -0.01512459703219808    6    1    3    1
 0.02586259896300961    6    1    3    2
 -0.002134535830612528    6    1    3    3
 -0.01896355360629953    6    1    4    1
 -0.002761987266456906    6    1    4    2
 -0.01637606837283783    6    1    4    3
 0.002263620621177584    6    1    4    4
 -0.009700657196779323    6    1    5    1
 0.02159185384810813    6    1    5    2
 0.003509296451076456    6    1    5    3
 0.001974935512485597    6    1    5    4
 0.0005924692579256582    6    1    5    5
 0.04371018174820596    6    1    6    1
 -0.01274354572501857    6    2    1    1
 -0.005012765844783878    6    2    2    1
 -0.03936849102173661    6    2    2    2
 0.02929407746667406    6    2    3    1
 0.008591460323248203    6    2    3    2
 0.004216981322916564    6    2    3    3
 -0.001945645806569227    6    2    4    1
 -0.005544191817386638    6    2    4    2
 -0.00296610889078478    6    2    4    3
 0.01573769970905151    6    2    4    4
 0.03026657421276777    6    2    5    1
 0.01198829171910473    6    2    5    2
 -0.0107004796570366    6    2    5    3
 0.0007150832106253142    6    2    5    4
 0.001441135853790101    6    2    5    5
 0.003736620662399952    6    2    6    1
 0.05260283450617691    6    2    6    2
 -0.02252699375729977    6    3    1    1
 0.03923039794700624    6    3    2    1
 0.01261599308155369    6    3    2    2
 -0.005692872398942984    6    3    3    1
 0.007262840637129067    6    3    3    2
 -0.004858699460548442    6    3    3    3
 -0.03799163292100505    6    3    4    1
 -0.007979676023260994    6    3    4    2
 -0.00911916124088364    6    3    4    3
 0.003428061508932197    6    3    4    4
 0.01057660482141083    6    3    5    1
 -0.03435037141413911    6    3    5    2
 -0.008500068048438602    6    3    5    3
 -0.01675219294232828    6    3    5    4
 0.000599051616688258    6    3    5    5
 -0.005043286400626188    6    3    6    1
 -0.002431238597393998    6    3    6    2
 0.05351190852038    6    3    6    3
 -0.04361241093673093    6    4    1    1
 -0.003110717743671621    6    4    2    1
 -0.01475905456131356    6    4    2    2
 -0.04832252820077019    6    4    3    1
 -0.008719443586931863    6    4    3    2
 -0.01889706778230555    6    4    3    3
 0.003403369922936141    6    4    4    1
 0.05347710388280883    6    4    4    2
 0.0005864760060182602    6    4    4    3
 -0.00789115474318621    6    4    4    4
 0.008304515251090364    6    4    5    1
 0.006497373320540021    6    4    5    2
 -0.05053234219063275    6    4    5    3
 0.00823918040280866    6    4    5    4
 0.002452877403825886    6    4    5    5
 -0.0009360214161526029    6    4    6    1
 0.002846280266263444    6    4    6    2
 -0.004343112157225126    6    4    6    3
 0.06583033313415206    6    4    6    4
 -0.02644002514825661    6    5    1    1
 0.0694851267233889    6    5    2    1
 0.03285713879027847    6    5    2    2
 0.01551711615061412    6    5    3    1
 -0.05272484109959447    6    5    3    2
 -0.01927147946727701    6    5    3    3
 0.009323011935179584    6    5    4    1
 0.006394498510686878    6    5    4    2
 -0.06819500279580995    6    5    4    3
 0.01854320222226148    6    5    4    4
 0.002727675248417166    6    5    5    1
 0.0002575457427243223    6    5    5    2
 0.009553725167246596    6    5    5    3
 0.06126384190435442    6    5    5    4
 -0.01202682328677323    6    5    5    5
 -0.003651812291510109    6    5    6    1
 -0.0008814877738583127    6    5    6    2
 -0.001576015568094732    6    5    6    3
 0.002697957032245605    6    5    6    4
 0.07950430663408543    6    5    6    5
 0.2041711554115674    6    6    1    1
 0.01075297992908275    6    6    2    1
 0.217516679467806    6    6    2    2
 -0.003704959025262364    6    6    3    1
 -0.006383425392396443    6    6    3    2
 0.2027485804631889    6    6    3    3
 -0.00108792642253832    6    6    4    1
 0.0001102237659945695    6    6    4    2
 -0.009459747420475676    6    6    4    3
 0.2093925911168872    6    6    4    4
 -0.005790277901669101    6    6    5    1
 -0.002357904501814439    6    6    5    2
 0.001219202465987283    6    6    5    3
 0.007771954575048607    6    6    5    4
 0.2041988896424228    6    6    5    5
 0.00101974695284547    6    6    6    1
 -0.007821278808999743    6    6    6    2
 0.001525080124684043    6    6    6    3
 -0.002733612405987263    6    6    6    4
 0.009207889393632004    6    6    6    5
 0.2198095096222209    6    6    6    6
 0.003677478205598504    7    1    1    1
 -0.001839256265533137    7    1    2    1
 -0.004373840948618694    7    1    2    2
 0.01506380361463571    7    1    3    1
 -0.005078507508766181    7    1    3    2
 -0.01773421446833471    7    1    3    3
 0.01040651059042798    7    1    4    1
 -0.02294909985978989    7    1    4    2
 0.003499770407441699    7    1    4    3
 0.0172403160299037    7    1    4    4
 -0.01383877321791424    7    1    5    1
 -0.0007438823794771725    7    1    5    2
 -0.02092991219312349    7    1    5    3
 -0.001405377980650997    7    1    5    4
 -0.004786920033275239    7    1    5    5
 -0.01106456363262083    7    1    6    1
 0.02358632317850618    7    1    6    2
 0.000191530296030485    7    1    6    3
 -0.002795504896249108    7    1    6    4
 -0.0001419523171757238    7    1    6    5
 -0.002570267742063878    7    1    6    6
 0.04470542652765563    7    1    7    1
 -0.001466108643098013    7    2    1    1
 -0.003811054235409433    7    2    2    1
 -0.006540465161989528    7    2    2    2
 -0.005765253555073973    7    2    3    1
 0.02716310087439952    7    2    3    2
 -0.001013440867532558    7    2    3    3
 -0.02632001147260505    7    2    4    1
 -0.01254614617330426    7    2    4    2
 -0.005159767945368951    7    2    4    3
 0.00742455648451702    7    2    4    4
 -0.001369393385036111    7    2    5    1
 0.003119850674472807    7    2    5    2
 -0.00101938306885862    7    2    5    3
 0.01256001762263972    7    2    5    4
 -0.001130218191330069    7    2    5    5
 0.03040229603262823    7    2    6    1
 0.01397295913946514    7    2    6    2
 -0.009890426839651032    7    2    6    3
 -0.0005764231609210325    7    2    6    4
 -0.005245415503845264    7    2    6    5
 -0.0009902060654462857    7    2    6    6
 -0.001332617142232711    7    2    7    1
 0.0415073768780593    7    2    7    2
 0.0215137860371914    7    3    1    1
 -0.008297094275102791    7    3    2    1
 0.03457198227491609    7    3    2    2
 -0.02655296364902062    7    3    3    1
 -0.00061946414572467    7    3    3    2
 -0.008259019137912655    7    3    3    3
 0.005046047970159398    7    3    4    1
 -0.005724953707453908    7    3    4    2
 0.004220445216578267    7    3    4    3
 0.006650291825985906    7    3    4    4
 -0.03955174120336599    7    3    5    1
 -0.0002920741825749937    7    3    5    2
 -0.009034903791347899    7    3    5    3
 0.001758332588112223    7    3    5    4
 -0.01582473013171065    7    3    5    5
 0.00478856989173444    7    3    6    1
 -0.02775940117821569    7    3    6    2
 -0.009320347902463604    7    3    6    3
 -0.01608221956169745    7    3    6    4
 -0.002174022834706003    7    3    6    5
 0.008443343566886096    7    3    6    6
 0.006213204988190496    7    3    7    1
 0.001067051471909706    7    3    7    2
 0.0498079475357189    7    3    7    3
 0.01750838646184256    7    4    1    1
 -0.04237082352144964    7    4    2    1
 -0.02077472801354304    7    4    2    2
 0.005305199692126418    7    4    3    1
 -0.007125685457756516    7    4    3    2
 0.005041251468935856    7    4    3    3
 0.03997323306216732    7    4    4    1
 0.01442679437091967    7    4    4    2
 0.01123341168434597    7    4    4    3
 -0.007938530118118552    7    4    4    4
 -0.004795855241728906    7    4    5    1
 0.03690767522712891    7    4    5    2
 0.00425929148973467    7    4    5    3
 -1.043781759874662e-05    7    4    5    4
 0.002447120265905609    7    4    5    5
 0.0008653608168289842    7    4    6    1
 0.004406430104668259    7    4    6    2
 -0.04018840177042646    7    4    6    3
 0.009705114849497366    7    4    6    4
 0.009886703763429861    7    4    6    5
 -0.00212454652794195    7    4    6    6
 0.0009316670230029966    7    4    7    1
 -0.006736664681387763    7    4    7    2
 0.0009591100690418766    7    4    7    3
 0.05228182078621356    7    4    7    4
 -0.03947304844125418    7    5    1    1
 -0.003688363792967061    7    5    2    1
 -0.002883109270966896    7    5    2    2
 -0.06180290417981429    7    5    3    1
 -0.001354787532068169    7    5    3    2
 -0.02239267578419259    7    5    3    3
 -0.005394987527072293    7    5    4    1
 0.04870197377729112    7    5    4    2
 0.005889509816452458    7    5    4    3
 -0.006636270005338315    7    5    4    4
 -0.004932456715272722    7    5    5    1
 -0.00118585795452537    7    5    5    2
 -0.05676383477562578    7    5    5    3
 0.0008826628958458232    7    5    5    4
 -0.0120108888249809    7    5    5    5
 0.001702168537810556    7    5    6    1
 -0.008510124189182025    7    5    6    2
 0.002679064653382689    7    5    6    3
 0.05058693744672083    7    5    6    4
 -0.007274585547245172    7    5    6    5
 0.008827207633108319    7    5    6    6
 -0.001350566747240512    7    5    7    1
 0.0001551926376727793    7    5    7    2
 0.01083007596759313    7    5    7    3
 -0.001987802308093453    7    5    7    4
 0.06741398589521398    7    5    7    5
 -0.03396070488293434    7    6    1    1
 0.08113305356160296    7    6    2    1
 0.03988988225630465    7    6    2    2
 0.008500111889813471    7    6    3    1
 -0.05211558143980305    7    6    3    2
 -0.02306052588951317    7    6    3    3
 -0.001281398998297643    7    6    4    1
 0.006073666061101036    7    6    4    2
 -0.07008342435563192    7    6    4    3
 0.02110161643401793    7    6    4    4
 0.002470165807589294    7    6    5    1
 -0.01139355664528185    7    6    5    2
 0.002740733819581721    7    6    5    3
 0.06308674948615488    7    6    5    4
 -0.01345367048762743    7    6    5    5
 -0.004981735978496572    7    6    6    1
 -0.003299152687868615    7    6    6    2
 0.009398886833978378    7    6    6    3
 0.003899646331083274    7    6    6    4
 0.06837055594732555    7    6    6    5
 0.01047043268366307    7    6    6    6
 0.000372576568434595    7    6    7    1
 -0.002156675415226832    7    6    7    2
 -0.0009289156260767508    7    6    7    3
 -0.01433127137555413    7    6    7    4
 3.653905580623296e-05    7    6    7    5
 0.08212285857126304    7    6    7    6
 0.229507015721935    7    7    1    1
 -0.003324646774385848    7    7    2    1
 0.2117944418194332    7    7    2    2
 0.02307664397996208    7    7    3    1
 0.004024214412018198    7    7    3    2
 0.2183479156100327    7    7    3    3
 0.001930344998202058    7    7    4    1
 -0.02332121666245628    7    7    4    2
 0.001891457738653169    7    7    4    3
 0.2091358653558297    7    7    4    4
 -0.003791476033262178    7    7    5    1
 2.916702609004737e-06    7    7    5    2
 0.02678662041660886    7    7    5    3
 -0.004596363918728415    7    7    5    4
 0.2131498733269326    7    7    5    5
 0.0006114603462160737    7    7    6    1
 -0.003044478561679125    7    7    6    2
 -0.001721478636455141    7    7    6    3
 -0.02722943072181452    7    7    6    4
 -0.001471993445443644    7    7    6    5
 0.2092022713633274    7    7    6    6
 -0.001643307016444625    7    7    7    1
 -0.0004675022182060616    7    7    7    2
 0.00327388869685289    7    7    7    3
 0.0004321700664197696    7    7    7    4
 -0.02865587505940019    7    7    7    5
 -0.005035597958157729    7    7    7    6
 0.2312326281600585    7    7    7    7
 -0.001313248386875593    8    1    1    1
 0.003718359484805931    8    1    2    1
 0.000264352355609854    8    1    2    2
 0.001118002194946991    8    1    3    1
 0.003888515448123939    8    1    3    2
 0.01034205397296638    8    1    3    3
 -0.008717819270194523    8    1    4    1
 -0.0001560679859091819    8    1    4    2
 0.01715508230048217    8    1    4    3
 -0.001031244269714317    8    1    4    4
 0.01162574847572806    8    1    5    1
 -0.01958387062778048    8    1    5    2
 0.001898123970435683    8    1    5    3
 0.01406898476396705    8    1    5    4
 -0.003159187379027426    8    1    5    5
 -0.01218073733681231    8    1    6    1
 -0.0008365041262501419    8    1    6    2
 -0.01366631041833153    8    1    6    3
 1.014849945712464e-05    8    1    6    4
 -0.001894550086252774    8    1    6    5
 -0.0001177055108031608    8    1    6    6
 -0.007060956696084352    8    1    7    1
 0.01457384416971434    8    1    7    2
 0.001277429974991454    8    1    7    3
 -0.002958819975418004    8    1    7    4
 0.001063186274521244    8    1    7    5
 0.0003224037578841349    8    1    7    6
 -0.0003827532409925073    8    1    7    7
 0.03992238280390223    8    1    8    1
 0.00340724103001997    8    2    1    1
 0.0005594230055150823    8    2    2    1
 0.00322458275838572    8    2    2    2
 0.004009569050641817    8    2    3    1
 0.001967720432771819    8    2    3    2
 -0.0210758230634326    8    2    3    3
 -0.0004767480897137734    8    2    4    1
 -0.02460478923204965    8    2    4    2
 0.002710393589800715    8    2    4    3
 -0.0008718969973898518    8    2    4    4
 -0.02225468617925037    8    2    5    1
 -0.006497784489912541    8    2    5    2
 -0.004374267377068774    8    2    5    3
 0.003211796017756841    8    2    5    4
 0.007067751371986101    8    2    5    5
 -0.0008181254447212592    8    2    6    1
 -9.61772956296345e-05    8    2    6    2
 -0.001433621084289774    8    2    6    3
 0.009093587290574351    8    2    6    4
 -0.0003810537309087783    8    2    6    5
 -0.002378449317164951    8    2    6    6
 0.02131064635640323    8    2    7    1
 0.007685904737169076    8    2    7    2
 -0.002776561053199813    8    2    7    3
 -0.001309442405231666    8    2    7    4
 -0.00133612438022822    8    2    7    5
 0.0004639684030345781    8    2    7    6
 -0.001529384861226591    8    2    7    7
 -0.001175562389674529    8    2    8    1
 0.03658363245312479    8    2    8    2
 0.001065577273090353    8    3    1    1
 0.005437884050465129    8    3    2    1
 0.00205332339662743    8    3    2    2
 0.01473324339096915    8    3    3    1
 -0.0267547095933637    8    3    3    2
 -0.0008674288755991674    8    3    3    3
 0.02569180549262936    8    3    4    1
 0.004228445648565366    8    3    4    2
 0.004960184100689596    8    3    4    3
 -0.002029535227443004    8    3    4    4
 0.003330526943126441    8    3    5    1
 -0.004598825474923121    8    3    5    2
 0.002280566054404939    8    3    5    3
 0.006630414255807189    8    3    5    4
 0.0009483847283249326    8    3    5    5
 -0.02839885026761637    8    3    6    1
 -0.002738705291646021    8    3    6    2
 -0.006617440407804888    8    3    6    3
 0.001392274045885442    8    3    6    4
 -0.008346366584433633    8    3    6    5
 -0.0008783082836872643    8    3    6    6
 0.00690551349245693    8    3    7    1
 -0.02023483301901745    8    3    7    2
 -0.0045395195850359    8    3    7    3
 -0.007385559070175345    8    3    7    4
 3.634323499091078e-05    8    3    7    5
 0.005022182135122314    8    3    7    6
 -0.001273983722705099    8    3    7    7
 0.005552981612646812    8    3    8    1
 0.001128201814528438    8    3    8    2
 0.04238712541476306    8    3    8    3
 -0.01327906889322557    8    4    1    1
 -0.0007533984509370885    8    4    2    1
 -0.03689153847566034    8    4    2    2
 0.03081667345736043    8    4    3    1
 0.004615077743427854    8    4    3    2
 0.005953283992661451    8    4    3    3
 -0.001222157395748937    8    4    4    1
 -0.003476335545637671    8    4    4    2
 -0.001511562238383535    8    4    4    3
 -0.004310567543075686    8    4    4    4
 0.0313674356452877    8    4    5    1
 0.006028603807219009    8    4    5    2
 0.01040436564881517    8    4    5    3
 -0.002889690559780554    8    4    5    4
 0.001785134206205033    8    4    5    5
 -0.001143140408877768    8    4    6    1
 0.0301977578973919    8    4    6    2
 0.001444263072819722    8    4    6    3
 -0.001228380031338961    8    4    6    4
 0.001404826093088208    8    4    6    5
 0.002590876596330961    8    4    6    6
 0.001061033660238126    8    4    7    1
 0.002474128932061164    8    4    7    2
 -0.03032176161076056    8    4    7    3
 0.004963516076383004    8    4    7    4
 -0.001796437324316096    8    4    7    5
 -0.002123586429696614    8    4    7    6
 -0.003098895686956192    8    4    7    7
 0.0006740110983179565    8    4    8    1
 -0.005841530966119802    8    4    8    2
 0.0006955829308285969    8    4    8    3
 0.04276866937721319    8    4    8    4
 0.02336314848805943    8    5    1    1
 -0.04211015056771682    8    5    2    1
 -0.01364912815812908    8    5    2    2
 0.004489714664477173    8    5    3    1
 -0.006013884714647057    8    5    3    2
 0.004732374269717694    8    5    3    3
 0.03846317653063661    8    5    4    1
 0.008037967666308815    8    5    4    2
 0.01404300745115859    8    5    4    3
 -0.005131970443658785    8    5    4    4
 -0.01119385563880797    8    5    5    1
 0.03214218830273907    8    5    5    2
 0.004513661189227408    8    5    5    3
 0.000253129628445344    8    5    5    4
 0.002299039488975466    8    5    5    5
 -4.01070602465107e-05    8    5    6    1
 0.0008598937145229397    8    5    6    2
 -0.03875972222909369    8    5    6    3
 0.003496716452759945    8    5    6    4
 -0.00455803321159893    8    5    6    5
 -0.001899419454090801    8    5    6    6
 0.00362889535260014    8    5    7    1
 -0.003796043479268374    8    5    7    2
 0.007075009482581176    8    5    7    3
 0.0347646025307358    8    5    7    4
 -0.002947462462534459    8    5    7    5
 -0.002399035404569874    8    5    7    6
 0.0007191337185642657    8    5    7    7
 -0.0009229352206931801    8    5    8    1
 0.0003468919868391345    8    5    8    2
 0.008423540962221959    8    5    8    3
 -0.001956277766754196    8    5    8    4
 0.05016282596401769    8    5    8    5
 -0.03691472020483839    8    6    1    1
 -0.001977049658988438    8    6    2    1
 -0.005816176715354358    8    6    2    2
 -0.05032161965628321    8    6    3    1
 -0.004638496461442937    8    6    3    2
 -0.0195834104861446    8    6    3    3
 -0.001570709977777503    8    6    4    1
 0.04457142450139878    8    6    4    2
 0.002463203049372257    8    6    4    3
 -0.00696097066473625    8    6    4    4
 -0.0006609709846326481    8    6    5    1
 0.001272004757651243    8    6    5    2
 -0.04715145154216843    8    6    5    3
 0.003584551954325762    8    6    5    4
 -0.0103709811243145    8    6    5    5
 0.0004096478831756084    8    6    6    1
 -0.004910477002402872    8    6    6    2
 0.0004247226614206918    8    6    6    3
 0.0449368947181219    8    6    6    4
 -0.002014157676152993    8    6    6    5
 -0.002034606037966616    8    6    6    6
 -0.001826846718379789    8    6    7    1
 -0.0009430900051811219    8    6    7    2
 0.00465552393626794    8    6    7    3
 0.001141957506718147    8    6    7    4
 0.04667999512225188    8    6    7    5
 0.002874934848470377    8    6    7    6
 -0.01557206796541939    8    6    7    7
 0.0002576473295708185    8    6    8    1
 -0.001267240392420153    8    6    8    2
 -0.00063942448566272    8    6    8    3
 -0.009456663418076142    8    6    8    4
 -0.0002245792169014903    8    6    8    5
 0.05281144541732912    8    6    8    6
 -0.02355749451704257    8    7    1    1
 0.06159092548965724    8    7    2    1
 0.02794287778155232    8    7    2    2
 0.01268821345594383    8    7    3    1
 -0.0382902641487513    8    7    3    2
 -0.01441047555187371    8    7    3    3
 -0.001346023110604283    8    7    4    1
 0.001623864855057316    8    7    4    2
 -0.05480896262224776    8    7    4    3
 0.01547778584738309    8    7    4    4
 0.004900499147101662    8    7    5    1
 -0.00673661796066486    8    7    5    2
 0.008462003823337099    8    7    5    3
 0.04628780335038751    8    7    5    4
 -0.008126423950221482    8    7    5    5
 -0.00207419557413656    8    7    6    1
 -0.0005212720005963469    8    7    6    2
 0.007596075497436282    8    7    6    3
 -0.0006913258191704708    8    7    6    4
 0.05290368593879682    8    7    6    5
 0.006926942385955643    8    7    6    6
 -0.001693931094230925    8    7    7    1
 -0.001756092213886418    8    7    7    2
 -0.004458490136726699    8    7    7    3
 -0.008062294845586638    8    7    7    4
 -0.005878506368150131    8    7    7    5
 0.05211069250153186    8    7    7    6
 -0.0009934863951805819    8    7    7    7
 -0.001453072261583687    8    7    8    1
 -0.0007090779958526785    8    7    8    2
 0.0008542155585001638    8    7    8    3
 0.00122587984419779    8    7    8    4
 -0.01323748807220205    8    7    8    5
 -0.003309379487887973    8    7    8    6
 0.05938234564633332    8    7    8    7
 0.2309275136203095    8    8    1    1
 -0.003776284167146459    8    8    2    1
 0.2130740383330296    8    8    2    2
 0.02263434065498016    8    8    3    1
 0.004199664013181714    8    8    3    2
 0.2195247748516124    8    8    3    3
 0.002015840494885325    8    8    4    1
 -0.02312274549895486    8    8    4    2
 0.002353109770168413    8    8    4    3
 0.2100835180604772    8    8    4    4
 -0.004002104759716772    8    8    5    1
 1.284222917921425e-05    8    8    5    2
 0.02645815652914662    8    8    5    3
 -0.004787032738122147    8    8    5    4
 0.2140072208269927    8    8    5    5
 0.0005384674790062495    8    8    6    1
 -0.003257278905087022    8    8    6    2
 -0.001944005815342857    8    8    6    3
 -0.02680902100632919    8    8    6    4
 -0.001976229766367018    8    8    6    5
 0.209395177036822    8    8    6    6
 -0.001716518581882794    8    8    7    1
 -0.0004692784867369527    8    8    7    2
 0.00335307212136846    8    8    7    3
 0.0004817919611173366    8    8    7    4
 -0.02792575229068479    8    8    7    5
 -0.005225286961553251    8    8    7    6
 0.2267335918353768    8    8    7    7
 -9.489719943243546e-05    8    8    8    1
 -0.001405589515379516    8    8    8    2
 -0.0008075542528759893    8    8    8    3
 -0.003121537122134698    8    8    8    4
 0.001515916332819284    8    8    8    5
 -0.02003474060498294    8    8    8    6
 -0.001399262240469155    8    8    8    7
 0.2333438985892877    8    8    8    8
 0.0004967664430498656    9    1    1    1
 0.0002375390286550964    9    1    2    1
 0.002160857584038752    9    1    2    2
 -0.00156486050328951    9    1    3    1
 0.0003153817982063676    9    1    3    2
 -0.01023157642715925    9    1    3    3
 -3.67425934068795e-05    9    1    4    1
 -0.006540336002410554    9    1    4    2
 -0.00421616768345175    9    1    4    3
 -0.01469639011889184    9    1    4    4
 -0.01167710129004291    9    1    5    1
 0.001230805976318869    9    1    5    2
 0.0124221796580738    9    1    5    3
 -0.0007084505959464682    9    1    5    4
 0.01245216306184469    9    1    5    5
 0.006158461362211259    9    1    6    1
 -0.01481343975647989    9    1    6    2
 0.001798563960499716    9    1    6    3
 0.01140342578923012    9    1    6    4
 -0.0007983013014801956    9    1    6    5
 -0.0003835590297343175    9    1    6    6
 -0.008671659064251531    9    1    7    1
 -0.0005174617334005201    9    1    7    2
 -0.01219593339938355    9    1    7    3
 -0.0002928265403737205    9    1    7    4
 -0.00120077111949364    9    1    7    5
 5.365307630233469e-05    9    1    7    6
 -0.0006891859000710322    9    1    7    7
 -0.008957852823949307    9    1    8    1
 0.02027158471973122    9    1    8    2
 0.001000873970474511    9    1    8    3
 -0.001954849626333401    9    1    8    4
 1.988163296526508e-05    9    1    8    5
 -0.001436998266700618    9    1    8    6
 0.0008315162122960129    9    1    8    7
 -0.000385033823610183    9    1    8    8
 0.02987179437446395    9    1    9    1
 -7.220330106029438e-05    9    2    1    1
 0.00224969115050729    9    2    2    1
 0.001492360378555719    9    2    2    2
 0.0002030466278221336    9    2    3    1
 0.004269304948813389    9    2    3    2
 0.001166450130764865    9    2    3    3
 -0.007326206678568502    9    2    4    1
 -0.007181487814721673    9    2    4    2