 &FCI NORB=  10,NELEC=14,MS2=0,
  ORBSYM=1,1,1,1,1,1,1,1,1,1,
  ISYM=1,
 &END
 2.306865664447669    1    1    1    1
 -1.451909192372657e-11    2    1    1    1
 1.824933981817305    2    1    2    1
 2.306351160735382    2    2    1    1
 1.452474443673916e-11    2    2    2    1
 2.305838106377278    2    2    2    2
 -0.1914404665989675    3    1    1    1
 -0.1913035533063322    3    1    2    2
 0.03094823078981482    3    1    3    1
 -0.1983666215425391    3    2    2    1
 -2.339078961493629e-12    3    2    2    2
 0.03068704056892302    3    2    3    2
 0.7868840776032359    3    3    1    1
 0.7869699869626624    3    3    2    2
 0.002022297985098068    3    3    3    1
 0.7472181500304236    3    3    3    3
 2.230146887932415e-12    4    1    1    1
 -0.1846139501174046    4    1    2    1
 0.0260148600619243    4    1    3    2
 0.02871558478700232    4    1    4    1
 -0.1915180728917124    4    2    1    1
 -0.1914693443789733    4    2    2    2
 0.02581901859910869    4    2    3    1
 -0.01827191418732955    4    2    3    3
 0.02891148239789604    4    2    4    2
 -1.368848499697828e-12    4    3    1    1
 0.1721198434088871    4    3    2    1
 1.370460243126665e-12    4    3    2    2
 -0.008300134306763768    4    3    3    2
 -0.004828713618113697    4    3    4    1
 0.05647626742423133    4    3    4    3
 0.6671458921501531    4    4    1    1
 0.667082051570574    4    4    2    2
 -0.01256365236950033    4    4    3    1
 0.5119501394611059    4    4    3    3
 -0.004910151131320912    4    4    4    2
 0.5453708953383583    4    4    4    4
 0.009770974882974749    5    1    5    1
 0.009269761552478373    5    2    5    2
 0.01662073010274331    5    3    5    1
 0.1049701474299211    5    3    5    3
 0.01128142281405057    5    4    5    2
 0.05087367798538072    5    4    5    4
 0.6879790991819602    5    5    1    1
 0.6880230406586392    5    5    2    2
 -0.00151388547507412    5    5    3    1
 0.6171757554629032    5    5    3    3
 -0.007728678125732157    5    5    4    2
 0.5100096682483254    5    5    4    4
 0.5880333086470347    5    5    5    5
 0.009770974882974752    6    1    6    1
 0.009269761552478375    6    2    6    2
 0.01662073010274331    6    3    6    1
 0.1049701474299211    6    3    6    3
 0.01128142281405057    6    4    6    2
 0.05087367798538074    6    4    6    4
 0.02399055495736288    6    5    6    5
 0.6879790991819604    6    6    1    1
 0.6880230406586393    6    6    2    2
 -0.001513885475074141    6    6    3    1
 0.6171757554629033    6    6    3    3
 -0.007728678125732195    6    6    4    2
 0.5100096682483255    6    6    4    4
 0.5400521987323089    6    6    5    5
 0.588033308647035    6    6    6    6
 0.08358407750292998    7    1    1    1
 0.08364308789210191    7    1    2    2
 -0.006565206510452544    7    1    3    1
 0.02549703896180151    7    1    3    3
 -0.0152157617155423    7    1    4    2
 -0.004206978893563247    7    1    4    4
 0.008948140978263047    7    1    5    5
 0.008948140978263051    7    1    6    6
 0.01426986282764067    7    1    7    1
 0.06855659345362801    7    2    2    1
 -0.007024222998453271    7    2    3    2
 -0.0147837545201335    7    2    4    1
 -0.000777877774696514    7    2    4    3
 0.01331565198805137    7    2    7    2
 0.06550121646315116    7    3    1    1
 0.06555911997083878    7    3    2    2
 0.007235154089189338    7    3    3    1
 0.1088646551953096    7    3    3    3
 -0.004775180513361657    7    3    4    2
 -0.00113519473132765    7    3    4    4
 0.04695975965786509    7    3    5    5
 0.04695975965786509    7    3    6    6
 0.01236104591109576    7    3    7    1
 0.05164607770542979    7    3    7    3
 2.007045244598936e-12    7    4    1    1
 -0.252198141944095    7    4    2    1
 -2.006765264743364e-12    7    4    2    2
 0.01387800268927015    7    4    3    2
 -0.002323559565367512    7    4    4    1
 -0.09308563583864993    7    4    4    3
 0.01487213164452055    7    4    7    2
 0.2235584888604654    7    4    7    4
 -0.004861044031661717    7    5    5    1
 -0.01384511582681068    7    5    5    3
 0.02806054367653902    7    5    7    5
 -0.004861044031661717    7    6    6    1
 -0.01384511582681069    7    6    6    3
 0.02806054367653902    7    6    7    6
 0.6854056843137646    7    7    1    1
 0.6853423268081251    7    7    2    2
 -0.008976129056394605    7    7    3    1
 0.5424367785711172    7    7    3    3
 -0.003724264940374038    7    7    4    2
 0.5570968878593265    7    7    4    4
 0.5177651312330542    7    7    5    5
 0.5177651312330543    7    7    6    6
 -0.002700028103118518    7    7    7    1
 0.01617485682670759    7    7    7    3
 0.584917996361491    7    7    7    7
 -0.01128754061395039    8    1    5    2
 -0.01344234977137703    8    1    5    4
 -0.000713468209774664    8    1    6    2
 -0.0008496704069171632    8    1    6    4
 0.01381736176858669    8    1    8    1
 -0.01186405017012649    8    2    5    1
 -0.01881036908280758    8    2    5    3
 -0.0007499084986764454    8    2    6    1
 -0.001188974712358931    8    2    6    3
 0.006205819795753663    8    2    7    5
 0.0003922603950047674    8    2    7    6
 0.01449850429602073    8    2    8    2
 -0.01141404682797659    8    3    5    2
 -0.04284063388271911    8    3    5    4
 -0.0007214644744290822    8    3    6    2
 -0.002707891063899187    8    3    6    4
 0.0134411058431988    8    3    8    1
 0.04424917100754105    8    3    8    3
 -0.01557749816771454    8    4    5    1
 -0.07395369243002282    8    4    5    3
 -0.0009846298773668574    8    4    6    1
 -0.004674499995070971    8    4    6    3
 0.0373553368389143    8    4    7    5
 0.002361173812039306    8    4    7    6
 0.01853260557411802    8    4    8    2
 0.08236493094057541    8    4    8    4
 2.186463930554324e-12    8    5    1    1
 -0.2748044462464976    8    5    2    1
 -2.187041472882225e-12    8    5    2    2
 0.008822710484060485    8    5    3    2
 0.002740728834982727    8    5    4    1
 -0.09649976851063306    8    5    4    3
 0.003774551894989962    8    5    7    2
 0.1571087990471181    8    5    7    4
 0.1869905336133413    8    5    8    5
 -0.01736996950950401    8    6    2    1
 0.0005576700602647729    8    6    3    2
 0.0001732372854504908    8    6    4    1
 -0.006099603043541566    8    6    4    3
 0.0002385836627592473    8    6    7    2
 0.009930607333315715    8    6    7    4
 0.01061969320467868    8    6    8    5
 0.01965119332334713    8    6    8    6
 0.007012693266840627    8    7    5    2
 0.03905355799466737    8    7    5    4
 0.0004432616352766827    8    7    6    2
 0.002468515778658601    8    7    6    4
 -0.008608741471003272    8    7    8    1
 -0.02499685655616367    8    7    8    3
 0.03816957457883113    8    7    8    7
 0.7276833321892709    8    8    1    1
 0.7277125780396621    8    8    2    2
 -0.005948816217116823    8    8    3    1
 0.5960361351608714    8    8    3    3
 -0.007743252746405357    8    8    4    2
 0.5358793067768214    8    8    4    4
 0.5868971152228719    8    8    5    5
 0.002880609798848967    8    8    6    5
 0.5415060352658814    8    8    6    6
 0.005357766510220891    8    8    7    1
 0.02922830918123645    8    8    7    3
 0.54053667484056    8    8    7    7
 0.6047495644207173    8    8    8    8
 -0.0007134682097746631    9    1    5    2
 -0.000849670406917162    9    1    5    4
 0.0112875406139504    9    1    6    2
 0.01344234977137704    9    1    6    4
 0.0138173617685867    9    1    9    1
 -0.0007499084986764443    9    2    5    1
 -0.001188974712358929    9    2    5    3
 0.01186405017012649    9    2    6    1
 0.01881036908280759    9    2    6    3
 0.0003922603950047666    9    2    7    5
 -0.006205819795753662    9    2    7    6
 0.01449850429602073    9    2    9    2
 -0.0007214644744290816    9    3    5    2
 -0.002707891063899185    9    3    5    4
 0.0114140468279766    9    3    6    2
 0.04284063388271913    9    3    6    4
 0.01344110584319881    9    3    9    1
 0.04424917100754108    9    3    9    3
 -0.0009846298773668564    9    4    5    1
 -0.004674499995070965    9    4    5    3
 0.01557749816771454    9    4    6    1
 0.07395369243002284    9    4    6    3
 0.002361173812039304    9    4    7    5
 -0.03735533683891433    9    4    7    6
 0.01853260557411804    9    4    9    2
 0.08236493094057545    9    4    9    4
 -0.01736996950950399    9    5    2    1
 0.0005576700602647737    9    5    3    2
 0.000173237285450491    9    5    4    1
 -0.00609960304354156    9    5    4    3
 0.0002385836627592472    9    5    7    2
 0.009930607333315704    9    5    7    4
 0.01061969320467864    9    5    8    5
 -0.01830868413410285    9    5    8    6
 0.01965119332334714    9    5    9    5
 -2.186658674696547e-12    9    6    1    1
 0.2748044462464977    9    6    2    1
 2.186791175422403e-12    9    6    2    2
 -0.008822710484060496    9    6    3    2
 -0.002740728834982741    9    6    4    1
 0.09649976851063308    9    6    4    3
 -0.003774551894989961    9    6    7    2
 -0.1571087990471181    9    6    7    4
 -0.1490306561558912    9    6    8    5
 -0.01061969320467866    9    6    8    6
 -0.01061969320467867    9    6    9    5
 0.1869905336133415    9    6    9    6
 0.0004432616352766822    9    7    5    2
 0.002468515778658599    9    7    5    4
 -0.00701269326684063    9    7    6    2
 -0.03905355799466739    9    7    6    4
 -0.008608741471003276    9    7    9    1
 -0.02499685655616369    9    7    9    3
 0.03816957457883115    9    7    9    7
 0.002880609798848903    9    8    5    5
 -0.02269553997849523    9    8    6    5
 -0.002880609798849001    9    8    6    6
 0.02506836306603346    9    8    9    8
 0.7276833321892713    9    9    1    1
 0.7277125780396624    9    9    2    2
 -0.005948816217116842    9    9    3    1
 0.5960361351608717    9    9    3    3
 -0.007743252746405347    9    9    4    2
 0.5358793067768216    9    9    4    4
 0.5415060352658817    9    9    5    5
 -0.00288060979884896    9    9    6    5
 0.5868971152228724    9    9    6    6
 0.005357766510220894    9    9    7    1
 0.02922830918123648    9    9    7    3
 0.5405366748405603    9    9    7    7
 0.5546128382886504    9    9    8    8
 0.604749564420718    9    9    9    9
 1.712366444214726e-12   10    1    1    1
 -0.1496126043670966   10    1    2    1
 0.02753898357227121   10    1    3    2
 0.01482120306051716   10    1    4    1
 -0.00813453244124324   10    1    4    3
 0.005030914003630747   10    1    7    2
 0.02624511337850483   10    1    7    4
 0.009891568763356017   10    1    8    5
 0.0006252309602972668   10    1    8    6
 0.0006252309602972658   10    1    9    5
 -0.009891568763356021   10    1    9    6
 0.03593526739623225   10    1   10    1
 -0.1312665818550126   10    2    1    1
 -0.1310504915874404   10    2    2    2
 0.02801217340665114   10    2    3    1
 0.02213387659981901   10    2    3    3
 0.01429094096865408   10    2    4    2
 -0.01622351951588494   10    2    4    4
 0.006439462220082104   10    2    5    5
 0.006439462220082104   10    2    6    6
 0.006121197116232359   10    2    7    1
 0.01678715243295739   10    2    7    3
 -0.01211853702368861   10    2    7    7
 -0.0003361779982884751   10    2    8    8
 -0.0003361779982884753   10    2    9    9
 0.03704484246600641   10    2   10    2
 -1.801235296005763e-12   10    3    1    1
 0.2263328771836812   10    3    2    1
 1.800842318452654e-12   10    3    2    2
 -0.004995123617629786   10    3    3    2
 -0.01144831357445788   10    3    4    1
 0.05920441514896907   10    3    4    3
 0.01092341405884489   10    3    7    2
 -0.05680773862062366   10    3    7    4
 -0.1019445951667281   10    3    8    5
 -0.006443762223979538   10    3    8    6
 -0.006443762223979531   10    3    9    5
 0.1019445951667281   10    3    9    6
 0.00596223262221232   10    3   10    1
 0.1066529235385554   10    3   10    3
 0.04917036956769342   10    4    1    1
 0.04924693669088067   10    4    2    2
 0.002876419332623306   10    4    3    1
 0.07353187639805428   10    4    3    3
 -0.007462147318432753   10    4    4    2
 -0.01981441502466538   10    4    4    4
 0.0416720352854173   10    4    5    5
 0.04167203528541731   10    4    6    6
 0.01222982301531379   10    4    7    1
 0.02972206255739741   10    4    7    3
 -0.02745131919608406   10    4    7    7
 0.02848138143230946   10    4    8    8
 0.02848138143230948   10    4    9    9
 0.01373219287085226   10    4   10    2
 0.04791107557269375   10    4   10    4
 0.008593671482774583   10    5    5    2
 0.0238357275683908   10    5    5    4
 -0.009868864752178855   10    5    8    1
 -0.03394768086648241   10    5    8    3
 0.004406972191405473   10    5    8    7
 -0.0006237958744124584   10    5    9    1
 -0.002145781080413239   10    5    9    3
 0.000278557984193899   10    5    9    7
 0.03533445793529832   10    5   10    5
 0.008593671482774583   10    6    6    2
 0.02383572756839081   10    6    6    4
 -0.000623795874412459   10    6    8    1
 -0.002145781080413241   10    6    8    3
 0.0002785579841938993   10    6    8    7
 0.009868864752178859   10    6    9    1
 0.03394768086648242   10    6    9    3
 -0.004406972191405475   10    6    9    7
 0.03533445793529832   10    6   10    6
 -1.538060986175705e-12   10    7    1    1
 0.1933359536732501   10    7    2    1
 1.538863082648318e-12   10    7    2    2
 -0.006826296324278566   10    7    3    2
 -0.001708300603945678   10    7    4    1
 0.05481457807950919   10    7    4    3
 -0.003404913988224353   10    7    7    2
 -0.1243795456013113   10    7    7    4
 -0.09194919856942996   10    7    8    5
 -0.005811968464810397   10    7    8    6
 -0.005811968464810391   10    7    9    5
 0.09194919856942999   10    7    9    6
 -0.009542977897294868   10    7   10    1
 0.05888608091623259   10    7   10    3
 0.09181505172461847   10    7   10    7
 -0.01109533005058581   10    8    5    1
 -0.06150644201510386   10    8    5    3
 -0.0007013188735079117   10    8    6    1
 -0.003887728299279826   10    8    6    3
 -0.0004398965732316816   10    8    7    5
 -2.780519081381869e-05   10    8    7    6
 0.01260878052883036   10    8    8    2
 0.03605239402991964   10    8    8    4
 0.04716361027128565   10    8   10    8
 -0.0007013188735079108   10    9    5    1
 -0.003887728299279821   10    9    5    3
 0.01109533005058582   10    9    6    1
 0.06150644201510388   10    9    6    3
 -2.780519081381855e-05   10    9    7    5
 0.0004398965732316826   10    9    7    6
 0.01260878052883036   10    9    9    2
 0.03605239402991965   10    9    9    4
 0.04716361027128567   10    9   10    9
 0.8958031735769217   10   10    1    1
 0.8958777131362663   10   10    2    2
 -0.005516368287868448   10   10    3    1
 0.7241338005118878   10   10    3    3
 -0.02094711835377517   10   10    4    2
 0.559468359013424   10   10    4    4
 0.6199586921604642   10   10    5    5
 0.6199586921604644   10   10    6    6
 0.0228800525233003   10   10    7    1
 0.08753998592073362   10   10    7    3
 0.5940888591770198   10   10    7    7
 0.6213509929541515   10   10    8    8
 0.6213509929541516   10   10    9    9
 0.01353478089465354   10   10   10    2
 0.04564832573421115   10   10   10    4
 0.7600248802189262   10   10   10   10
 -27.54915488556389    1    1  0  0
 -27.54834496478074    2    2  0  0
 0.4635675509345958    3    1  0  0
 1.842961565368474e-12    3    2  0  0
 -9.533142646681872    3    3  0  0
 -1.980508611617846e-12    4    1  0  0
 0.4988436049004949    4    2  0  0
 -7.675382504934039    4    4  0  0
 -8.054499426069887    5    5  0  0
 -8.054499426069887    6    6  0  0
 -0.2627968093193866    7    1  0  0
 -1.04577026458706e-12    7    2  0  0
 -0.7070941310597668    7    3  0  0
 -7.776486527983235    7    7  0  0
 -7.832574599666748    8    8  0  0
 -7.832574599666752    9    9  0  0
 0.231954719970872   10    2  0  0
 -0.4242609843251918   10    4  0  0
 -8.310998020577649   10   10  0  0
 23.57243939552727  0  0  0  0
